[
  {
    "id": 1,
    "name": "Sodium Chloride",
    "synonym": "Table Salt",
    "formula": "NaCl",
    "casNumber": "7647-14-5",
    "molarMass": 58.44,
    "physicalForm": "Solid",
    "meltingPoint": 801,
    "boilingPoint": 1413,
    "density": 2.165,
    "refractiveIndex": null,
    "solubility": "Soluble in water"
  },
  {
    "id": 2,
    "name": "Calcium Carbonate",
    "synonym": "Limestone",
    "formula": "CaCO3",
    "casNumber": "471-34-1",
    "molarMass": 100.0869,
    "physicalForm": "Solid",
    "meltingPoint": 825,
    "boilingPoint": null,
    "density": 2.71,
    "refractiveIndex": null,
    "solubility": "Practically insoluble in water"
  },
  {
    "id": 3,
    "name": "Copper(II) Sulfate Pentahydrate",
    "synonym": "Blue vitriol",
    "formula": "CuSO4·5H2O",
    "casNumber": "7758-99-8",
    "molarMass": 249.685,
    "physicalForm": "Blue crystals",
    "meltingPoint": 110,
    "boilingPoint": null,
    "density": 2.284,
    "refractiveIndex": null,
    "solubility": "Soluble in water"
  },
  {
    "id": 4,
    "name": "Dihydrogen Monoxide",
    "synonym": "Water",
    "formula": "H2O",
    "casNumber": "7732-18-5",
    "molarMass": 18.015,
    "physicalForm": "Liquid",
    "meltingPoint": 0,
    "boilingPoint": 100,
    "density": 1.0,
    "refractiveIndex": 1.333,
    "solubility": "Miscible with many liquids"
  },
  {
    "id": 5,
    "name": "Carbon Dioxide",
    "synonym": "Carbonic anhydride",
    "formula": "CO2",
    "casNumber": "124-38-9",
    "molarMass": 44.01,
    "physicalForm": "Gas",
    "meltingPoint": -56.6,
    "boilingPoint": -78.5,
    "density": 1.98,
    "refractiveIndex": 1.00045,
    "solubility": "Sparingly soluble in water"
  },
  {
    "id": 6,
    "name": "Ammonia",
    "synonym": "Azane",
    "formula": "NH3",
    "casNumber": "7664-41-7",
    "molarMass": 17.031,
    "physicalForm": "Gas",
    "meltingPoint": -77.7,
    "boilingPoint": -33.3,
    "density": 0.73,
    "refractiveIndex": 1.00037,
    "solubility": "Highly soluble in water"
  },
  {
    "id": 7,
    "name": "Hydrochloric Acid",
    "synonym": "Muriatic Acid",
    "formula": "HCl",
    "casNumber": "7647-01-0",
    "molarMass": 36.46,
    "physicalForm": "Gas (aqueous solution is liquid)",
    "meltingPoint": -114.2,
    "boilingPoint": -85.1,
    "density": 1.19,
    "refractiveIndex": 1.33,
    "solubility": "Fully miscible with water"
  },
  {
    "id": 8,
    "name": "Sulfuric Acid",
    "synonym": "Oil of Vitriol",
    "formula": "H2SO4",
    "casNumber": "7664-93-9",
    "molarMass": 98.079,
    "physicalForm": "Liquid (viscous)",
    "meltingPoint": 10.3,
    "boilingPoint": 337,
    "density": 1.84,
    "refractiveIndex": 1.430,
    "solubility": "Miscible with water (exothermic)"
  },
  {
    "id": 9,
    "name": "Nitric Acid",
    "synonym": "Aqua fortis",
    "formula": "HNO3",
    "casNumber": "7697-37-2",
    "molarMass": 63.01,
    "physicalForm": "Liquid",
    "meltingPoint": -41.6,
    "boilingPoint": 83,
    "density": 1.51,
    "refractiveIndex": 1.397,
    "solubility": "Miscible with water"
  },
  {
    "id": 10,
    "name": "Sodium Hydroxide",
    "synonym": "Caustic Soda",
    "formula": "NaOH",
    "casNumber": "1310-73-2",
    "molarMass": 40.00,
    "physicalForm": "White solid (flakes/pellets)",
    "meltingPoint": 318,
    "boilingPoint": 1390,
    "density": 2.13,
    "refractiveIndex": null,
    "solubility": "Very soluble in water"
  },
  {
    "id": 11,
    "name": "Calcium Hydroxide",
    "synonym": "Slaked Lime",
    "formula": "Ca(OH)2",
    "casNumber": "1305-62-0",
    "molarMass": 74.09,
    "physicalForm": "White powder",
    "meltingPoint": 580,
    "boilingPoint": null,
    "density": 2.21,
    "refractiveIndex": null,
    "solubility": "Sparingly soluble in water"
  },
  {
    "id": 12,
    "name": "Calcium Oxide",
    "synonym": "Quicklime",
    "formula": "CaO",
    "casNumber": "1305-78-8",
    "molarMass": 56.08,
    "physicalForm": "White solid (lumps)",
    "meltingPoint": 2572,
    "boilingPoint": 2850,
    "density": 3.34,
    "refractiveIndex": null,
    "solubility": "Reacts with water (forms Ca(OH)2)"
  },
  {
    "id": 13,
    "name": "Sodium Bicarbonate",
    "synonym": "Baking Soda",
    "formula": "NaHCO3",
    "casNumber": "144-55-8",
    "molarMass": 84.006,
    "physicalForm": "White crystalline powder",
    "meltingPoint": 50,
    "boilingPoint": null,
    "density": 2.20,
    "refractiveIndex": null,
    "solubility": "Moderately soluble in water"
  },
  {
    "id": 14,
    "name": "Sodium Carbonate Decahydrate",
    "synonym": "Washing Soda",
    "formula": "Na2CO3·10H2O",
    "casNumber": "6132-02-1",
    "molarMass": 286.14,
    "physicalForm": "Colorless crystals",
    "meltingPoint": 34,
    "boilingPoint": null,
    "density": 1.46,
    "refractiveIndex": null,
    "solubility": "Highly soluble in water"
  },
  {
    "id": 15,
    "name": "Magnesium Sulfate Heptahydrate",
    "synonym": "Epsom Salt",
    "formula": "MgSO4·7H2O",
    "casNumber": "10034-99-8",
    "molarMass": 246.47,
    "physicalForm": "Colorless crystals",
    "meltingPoint": 150,
    "boilingPoint": null,
    "density": 1.68,
    "refractiveIndex": null,
    "solubility": "Very soluble in water"
  },
  {
    "id": 16,
    "name": "Silver Nitrate",
    "synonym": "Lunar Caustic",
    "formula": "AgNO3",
    "casNumber": "7761-88-8",
    "molarMass": 169.87,
    "physicalForm": "White crystalline solid",
    "meltingPoint": 210,
    "boilingPoint": 440,
    "density": 4.35,
    "refractiveIndex": 1.744,
    "solubility": "Very soluble in water"
  },
  {
    "id": 17,
    "name": "Potassium Permanganate",
    "synonym": "Condy's crystals",
    "formula": "KMnO4",
    "casNumber": "7722-64-7",
    "molarMass": 158.034,
    "physicalForm": "Purple crystals",
    "meltingPoint": 240,
    "boilingPoint": null,
    "density": 2.70,
    "refractiveIndex": null,
    "solubility": "6.4 g/100 mL water (20 °C)"
  },
  {
    "id": 18,
    "name": "Potassium Dichromate",
    "synonym": "Potassium bichromate",
    "formula": "K2Cr2O7",
    "casNumber": "7778-50-9",
    "molarMass": 294.18,
    "physicalForm": "Orange crystals",
    "meltingPoint": 398,
    "boilingPoint": null,
    "density": 2.68,
    "refractiveIndex": null,
    "solubility": "4.9 g/100 mL water (20 °C)"
  },
  {
    "id": 19,
    "name": "Iron(III) Oxide",
    "synonym": "Rust",
    "formula": "Fe2O3",
    "casNumber": "1309-37-1",
    "molarMass": 159.69,
    "physicalForm": "Reddish-brown solid",
    "meltingPoint": 1566,
    "boilingPoint": null,
    "density": 5.24,
    "refractiveIndex": null,
    "solubility": "Insoluble in water"
  },
  {
    "id": 20,
    "name": "Silicon Dioxide",
    "synonym": "Quartz",
    "formula": "SiO2",
    "casNumber": "7631-86-9",
    "molarMass": 60.08,
    "physicalForm": "Hard solid (crystalline)",
    "meltingPoint": 1713,
    "boilingPoint": 2950,
    "density": 2.65,
    "refractiveIndex": 1.544,
    "solubility": "Insoluble in water"
  },
  {
    "id": 21,
    "name": "Aluminum Oxide",
    "synonym": "Alumina",
    "formula": "Al2O3",
    "casNumber": "1344-28-1",
    "molarMass": 101.96,
    "physicalForm": "White solid",
    "meltingPoint": 2072,
    "boilingPoint": 2977,
    "density": 3.95,
    "refractiveIndex": 1.765,
    "solubility": "Insoluble in water"
  },
  {
    "id": 22,
    "name": "Ammonium Nitrate",
    "synonym": "Norwegian saltpeter",
    "formula": "NH4NO3",
    "casNumber": "6484-52-2",
    "molarMass": 80.04,
    "physicalForm": "White crystalline solid",
    "meltingPoint": 169.6,
    "boilingPoint": null,
    "density": 1.73,
    "refractiveIndex": null,
    "solubility": "Very soluble in water"
  },
  {
    "id": 23,
    "name": "Calcium Chloride",
    "synonym": "Calcium dichloride",
    "formula": "CaCl2",
    "casNumber": "10043-52-4",
    "molarMass": 110.98,
    "physicalForm": "White solid (flakes)",
    "meltingPoint": 772,
    "boilingPoint": 1600,
    "density": 2.15,
    "refractiveIndex": null,
    "solubility": "Very soluble in water (deliquescent)"
  },
  {
    "id": 24,
    "name": "Calcium Sulfate Dihydrate",
    "synonym": "Gypsum",
    "formula": "CaSO4·2H2O",
    "casNumber": "10101-41-4",
    "molarMass": 172.17,
    "physicalForm": "White solid",
    "meltingPoint": 150,
    "boilingPoint": null,
    "density": 2.32,
    "refractiveIndex": null,
    "solubility": "Slightly soluble in water"
  },
  {
    "id": 25,
    "name": "Potassium Nitrate",
    "synonym": "Saltpeter",
    "formula": "KNO3",
    "casNumber": "7757-79-1",
    "molarMass": 101.10,
    "physicalForm": "White crystalline solid",
    "meltingPoint": 334,
    "boilingPoint": null,
    "density": 2.11,
    "refractiveIndex": null,
    "solubility": "31.6 g/100 mL water (20 °C)"
  },
  {
    "id": 26,
    "name": "Sodium Nitrate",
    "synonym": "Chile Saltpeter",
    "formula": "NaNO3",
    "casNumber": "7631-99-4",
    "molarMass": 84.99,
    "physicalForm": "White crystalline solid",
    "meltingPoint": 308,
    "boilingPoint": 380,
    "density": 2.26,
    "refractiveIndex": null,
    "solubility": "87.6 g/100 mL water (20 °C)"
  },
  {
    "id": 27,
    "name": "Hydrogen Peroxide",
    "synonym": "Peroxide",
    "formula": "H2O2",
    "casNumber": "7722-84-1",
    "molarMass": 34.0147,
    "physicalForm": "Colorless liquid",
    "meltingPoint": -0.4,
    "boilingPoint": 150.2,
    "density": 1.45,
    "refractiveIndex": 1.406,
    "solubility": "Miscible with water"
  },
  {
    "id": 28,
    "name": "Phosphoric Acid",
    "synonym": "Orthophosphoric Acid",
    "formula": "H3PO4",
    "casNumber": "7664-38-2",
    "molarMass": 98.00,
    "physicalForm": "Syrupy liquid or solid (crystals)",
    "meltingPoint": 42.3,
    "boilingPoint": 213,
    "density": 1.88,
    "refractiveIndex": 1.433,
    "solubility": "Miscible with water"
  },
  {
    "id": 29,
    "name": "Ammonium Chloride",
    "synonym": "Sal Ammoniac",
    "formula": "NH4Cl",
    "casNumber": "12125-02-9",
    "molarMass": 53.49,
    "physicalForm": "White crystalline solid",
    "meltingPoint": 338,
    "boilingPoint": null,
    "density": 1.53,
    "refractiveIndex": null,
    "solubility": "37 g/100 mL water (25 °C)"
  },
  {
    "id": 30,
    "name": "Zinc Oxide",
    "synonym": "Zinc white",
    "formula": "ZnO",
    "casNumber": "1314-13-2",
    "molarMass": 81.38,
    "physicalForm": "White powder",
    "meltingPoint": 1975,
    "boilingPoint": null,
    "density": 5.61,
    "refractiveIndex": 2.0041,
    "solubility": "Insoluble in water"
  },
  {
    "id": 31,
    "name": "Magnesium Oxide",
    "synonym": "Magnesia",
    "formula": "MgO",
    "casNumber": "1309-48-4",
    "molarMass": 40.31,
    "physicalForm": "White powder",
    "meltingPoint": 2852,
    "boilingPoint": 3600,
    "density": 3.58,
    "refractiveIndex": 1.735,
    "solubility": "Sparingly soluble (reacts with water)"
  },
  {
    "id": 32,
    "name": "Iron(II) Sulfate Heptahydrate",
    "synonym": "Green Vitriol",
    "formula": "FeSO4·7H2O",
    "casNumber": "7782-63-0",
    "molarMass": 278.02,
    "physicalForm": "Blue-green crystals",
    "meltingPoint": 64,
    "boilingPoint": null,
    "density": 1.90,
    "refractiveIndex": null,
    "solubility": "Soluble in water"
  },
  {
    "id": 33,
    "name": "Zinc Sulfate Heptahydrate",
    "synonym": "White Vitriol",
    "formula": "ZnSO4·7H2O",
    "casNumber": "7446-20-0",
    "molarMass": 287.54,
    "physicalForm": "Colorless crystals",
    "meltingPoint": 100,
    "boilingPoint": null,
    "density": 1.97,
    "refractiveIndex": null,
    "solubility": "Very soluble in water"
  },
  {
    "id": 34,
    "name": "Copper(II) Oxide",
    "synonym": "Cupric oxide",
    "formula": "CuO",
    "casNumber": "1317-38-0",
    "molarMass": 79.55,
    "physicalForm": "Black powder",
    "meltingPoint": 1326,
    "boilingPoint": 2000,
    "density": 6.31,
    "refractiveIndex": null,
    "solubility": "Insoluble in water"
  },
  {
    "id": 35,
    "name": "Potassium Hydroxide",
    "synonym": "Caustic Potash",
    "formula": "KOH",
    "casNumber": "1310-58-3",
    "molarMass": 56.11,
    "physicalForm": "White deliquescent solid",
    "meltingPoint": 360,
    "boilingPoint": 1320,
    "density": 2.04,
    "refractiveIndex": null,
    "solubility": "Very soluble in water"
  },
  {
    "id": 36,
    "name": "Barium Sulfate",
    "synonym": "Barite",
    "formula": "BaSO4",
    "casNumber": "7727-43-7",
    "molarMass": 233.39,
    "physicalForm": "White heavy powder",
    "meltingPoint": 1580,
    "boilingPoint": null,
    "density": 4.50,
    "refractiveIndex": 1.636,
    "solubility": "Virtually insoluble in water"
  },
  {
    "id": 37,
    "name": "Calcium Phosphate",
    "synonym": "Tricalcium phosphate",
    "formula": "Ca3(PO4)2",
    "casNumber": "7758-87-4",
    "molarMass": 310.18,
    "physicalForm": "White powder",
    "meltingPoint": 1670,
    "boilingPoint": null,
    "density": 3.14,
    "refractiveIndex": null,
    "solubility": "Insoluble in water"
  },
  {
    "id": 38,
    "name": "Boric Acid",
    "synonym": "Boracic acid",
    "formula": "H3BO3",
    "casNumber": "10043-35-3",
    "molarMass": 61.83,
    "physicalForm": "White solid (crystalline)",
    "meltingPoint": 170.9,
    "boilingPoint": 300,
    "density": 1.435,
    "refractiveIndex": 1.337,
    "solubility": "Soluble in water (5.6 g/100mL at 20°C)"
  },
  {
    "id": 39,
    "name": "Hydrogen Sulfide",
    "synonym": "Sewer gas",
    "formula": "H2S",
    "casNumber": "7783-06-4",
    "molarMass": 34.08,
    "physicalForm": "Gas",
    "meltingPoint": -85.5,
    "boilingPoint": -60.3,
    "density": 1.54,
    "refractiveIndex": 1.000644,
    "solubility": "Moderately soluble in water"
  },
  {
    "id": 40,
    "name": "Sodium Hypochlorite",
    "synonym": "Bleach",
    "formula": "NaClO",
    "casNumber": "7681-52-9",
    "molarMass": 74.44,
    "physicalForm": "Usually in aqueous solution",
    "meltingPoint": 18,
    "boilingPoint": null,
    "density": 1.21,
    "refractiveIndex": null,
    "solubility": "Fully soluble in water"
  },
  {
    "id": 41,
    "name": "Potassium Chloride",
    "synonym": "Muriate of potash",
    "formula": "KCl",
    "casNumber": "7447-40-7",
    "molarMass": 74.55,
    "physicalForm": "White crystalline solid",
    "meltingPoint": 770,
    "boilingPoint": 1420,
    "density": 1.98,
    "refractiveIndex": 1.493,
    "solubility": "34 g/100 mL water (20 °C)"
  },
  {
    "id": 42,
    "name": "Manganese Dioxide",
    "synonym": "Pyrolusite",
    "formula": "MnO2",
    "casNumber": "1313-13-9",
    "molarMass": 86.94,
    "physicalForm": "Black or brown solid",
    "meltingPoint": 535,
    "boilingPoint": null,
    "density": 5.03,
    "refractiveIndex": null,
    "solubility": "Insoluble in water"
  },
  {
    "id": 43,
    "name": "Sodium Sulfate Decahydrate",
    "synonym": "Glauber's salt",
    "formula": "Na2SO4·10H2O",
    "casNumber": "7727-73-3",
    "molarMass": 322.20,
    "physicalForm": "Transparent crystals",
    "meltingPoint": 32.4,
    "boilingPoint": null,
    "density": 1.46,
    "refractiveIndex": null,
    "solubility": "19 g/100 mL water (20 °C)"
  },
  {
    "id": 44,
    "name": "Ammonium Sulfate",
    "synonym": "Mascagnite (mineral)",
    "formula": "(NH4)2SO4",
    "casNumber": "7783-20-2",
    "molarMass": 132.14,
    "physicalForm": "White crystalline solid",
    "meltingPoint": 235,
    "boilingPoint": null,
    "density": 1.77,
    "refractiveIndex": null,
    "solubility": "76 g/100 mL water (25 °C)"
  },
  {
    "id": 45,
    "name": "Sulfur Dioxide",
    "synonym": "Sulfurous anhydride",
    "formula": "SO2",
    "casNumber": "7446-09-5",
    "molarMass": 64.07,
    "physicalForm": "Gas",
    "meltingPoint": -72.7,
    "boilingPoint": -10,
    "density": 2.93,
    "refractiveIndex": 1.0007,
    "solubility": "Highly soluble in water (forms H2SO3)"
  },
  {
    "id": 46,
    "name": "Nitrogen Dioxide",
    "synonym": "Nitrogen peroxide",
    "formula": "NO2",
    "casNumber": "10102-44-0",
    "molarMass": 46.01,
    "physicalForm": "Reddish-brown gas",
    "meltingPoint": -11.2,
    "boilingPoint": 21.2,
    "density": 1.88,
    "refractiveIndex": 1.000298,
    "solubility": "Reacts with water (forms HNO2/HNO3)"
  },
  {
    "id": 47,
    "name": "Sodium Thiosulfate Pentahydrate",
    "synonym": "Hypo",
    "formula": "Na2S2O3·5H2O",
    "casNumber": "10102-17-7",
    "molarMass": 248.18,
    "physicalForm": "Colorless crystals",
    "meltingPoint": 48,
    "boilingPoint": null,
    "density": 1.69,
    "refractiveIndex": null,
    "solubility": "67 g/100 mL water (20 °C)"
  },
  {
    "id": 48,
    "name": "Nitrous Oxide",
    "synonym": "Laughing Gas",
    "formula": "N2O",
    "casNumber": "10024-97-2",
    "molarMass": 44.01,
    "physicalForm": "Colorless gas",
    "meltingPoint": -90.9,
    "boilingPoint": -88.5,
    "density": 1.53,
    "refractiveIndex": 1.000507,
    "solubility": "Slightly soluble in water"
  },
  {
    "id": 49,
    "name": "Trisodium Phosphate",
    "synonym": "TSP",
    "formula": "Na3PO4",
    "casNumber": "7601-54-9",
    "molarMass": 163.94,
    "physicalForm": "White crystalline solid",
    "meltingPoint": 73.5,
    "boilingPoint": null,
    "density": 1.62,
    "refractiveIndex": null,
    "solubility": "In water: 12 g/100 mL (25 °C)"
  },
  {
    "id": 50,
    "name": "Calcium Hypochlorite",
    "synonym": "Bleaching powder",
    "formula": "Ca(ClO)2",
    "casNumber": "7778-54-3",
    "molarMass": 142.98,
    "physicalForm": "White/gray powder",
    "meltingPoint": 100,
    "boilingPoint": null,
    "density": 2.35,
    "refractiveIndex": null,
    "solubility": "21 g/100 mL water (25 °C)"
  }
]
